ITEM: TIMESTEP
0
ITEM: NUMBER OF ATOMS
28
ITEM: BOX BOUNDS pp pp pp
0 11
0 3
0 1
ITEM: ATOMS id type x y z
1 1 0 0 0
2 1 1 0 0
3 1 2 0 0
4 1 0 1 0
5 1 0 2 0
6 1 0 3 0
7 1 1 3 0
8 1 2 3 0
9 2 4 0 0
10 2 7 0 0
11 3 9 0 0
12 3 10 0 0
13 3 11 0 0
14 2 4 1 0
15 2 5.5 1 0
16 2 7 1 0
17 3 9 1 0
18 3 11 1 0
19 2 4 2 0
20 2 5 2 0
21 2 6 2 0
22 2 7 2 0
23 3 9 2 0
24 3 11 2 0
25 2 4 3 0
26 2 7 3 0
27 3 9 3 0
28 3 11 3 0
